Triclinic box - test data

4 atoms
2 atom types

0.0 13.0 xlo xhi
0.0 11.25833025 ylo yhi
0.0 16.14 zlo zhi
-6.5 0.0 0.0 xy xz yz

Masses

1 32.06
2 47.867

Atoms

1 1 0.0 2.0 3.0
2 2 0.0 5.0 7.0
3 1 0.0 8.0 9.0
4 2 0.0 1.0 2.0
