Water box - test data

3 atoms
2 atom types

0.0 10.0 xlo xhi
0.0 10.0 ylo yhi
0.0 10.0 zlo zhi

Masses

1 15.999
2 1.008

Atoms

1 1 0.0 5.0 5.0 5.0
2 2 0.0 5.0 6.0 5.0
3 2 0.0 6.0 5.0 5.0
